ITEM: TIMESTEP
178420000
ITEM: NUMBER OF ATOMS
497
ITEM: BOX BOUNDS pp pp pp
7.7797690000000003e+01 9.7797690000000003e+01
7.7797690000000003e+01 9.7797690000000003e+01
-3.7500000000000000e+01 -1.7500000000000000e+01
ITEM: ATOMS id mol type mass q x y z
506195 13 3 12.01 0.1716 78.3794 86.4638 -36.5832
506181 13 3 12.01 -0.1565 79.5191 87.1538 -37.0414
506179 13 3 12.01 -0.23 78.0148 85.3243 -37.3149
506537 13 4 16 -0.587509 80.807 83.8263 -35.7407
506217 13 5 1.008 0.1816 84.017 85.5795 -36.7492
506202 13 1 12.01 0.743425 81.8717 84.3563 -35.9705
506218 13 3 12.01 0.014 83.8453 84.765 -37.4467
506204 13 3 12.01 -0.1956 82.6278 84.0306 -37.2066
506188 13 4 16 -0.587509 82.4098 87.6959 -36.5296
506426 13 1 12.01 0.743425 78.7533 78.9061 -34.391
506425 13 7 14.01 -0.398375 80.0004 78.3771 -34.8532
506519 13 3 12.01 -0.1956 78.8495 80.1916 -33.634
506520 13 3 12.01 0.014 79.8184 80.4007 -32.5909
506427 13 8 1.008 0.23105 80.7775 78.8613 -34.4228
506513 13 3 12.01 0.014 78.1402 81.3346 -34.0163
506515 13 3 12.01 -0.1956 78.0843 82.4707 -33.1836
506514 13 8 1.008 0.23105 77.9368 86.1699 -34.6715
506517 13 5 1.008 0.1816 78.0203 87.2359 -32.6812
506526 13 3 12.01 0.1716 82.0939 84.9528 -33.5835
506527 13 5 1.008 0.131 82.3015 82.7789 -33.1969
506199 13 7 14.01 -0.398375 82.5615 84.8609 -34.8901
506200 13 8 1.008 0.23105 83.5816 84.8688 -34.9229
506523 13 3 12.01 -0.23 81.9904 83.7557 -32.8385
506525 13 3 12.01 -0.1565 81.6848 86.1701 -33.0071
506524 13 5 1.008 0.131 81.7993 87.0568 -33.6237
506431 13 5 1.008 0.1816 80.3381 79.5448 -32.1704
507106 13 3 12.01 0.014 79.0269 82.5794 -32.1751
507076 13 5 1.008 0.1816 79.0646 83.5324 -31.6558
507072 13 3 12.01 -0.1956 79.8663 81.5332 -31.8213
506521 13 5 1.008 0.10745 81.0392 87.3391 -31.3015
506522 13 3 12.01 -0.23 81.2283 86.3552 -31.7205
506544 13 8 1.008 0.23105 85.904 84.0837 -32.0141
506528 13 3 12.01 0.1716 81.5882 83.9068 -31.4333
507103 13 3 12.01 -0.1565 81.2235 85.1941 -30.9414
507144 13 7 14.01 -0.398375 86.5471 83.7025 -31.3266
507132 13 5 1.008 0.131 87.4564 86.3374 -31.3813
507078 13 4 16 -0.587509 81.0285 80.6867 -30.025
506867 29256 3 12.01 -0.23 83.3542 77.8741 -30.0085
507074 13 12 16 -0.5351 77.8492 86.7387 -30.1882
507082 13 1 12.01 0.743425 80.8325 81.7148 -30.6758
507110 13 4 16 -0.587509 85.198 82.0186 -30.8172
507083 13 7 14.01 -0.398375 81.5524 82.8833 -30.5014
507118 13 1 12.01 0.743425 86.1662 82.6594 -30.5282
506849 22238 3 12.01 0.014 78.208 78.8982 -29.2128
506854 22238 5 1.008 0.1816 79.26 78.637 -29.1464
506879 22238 8 1.008 0.23105 80.0689 80.5993 -28.1808
506868 29256 7 14.01 -0.398375 83.2481 78.8451 -29.0354
506875 29256 1 12.01 0.743425 84.1866 79.0083 -28.0181
506877 29256 4 16 -0.587509 84.8087 78.0419 -27.5941
506869 29256 8 1.008 0.23105 82.5613 79.633 -29.1521
507112 13 5 1.008 0.1816 86.6478 80.2959 -29.5679
507117 13 3 12.01 0.014 87.1535 81.0392 -28.9588
507098 13 14 1.008 0.4315 78.0744 86.4796 -29.2394
507077 13 5 1.008 0.131 81.0091 85.3406 -29.8869
507079 13 8 1.008 0.23105 82.0035 82.9973 -29.6042
507092 29256 3 12.01 0.014 84.0289 81.6177 -27.7805
507090 29256 5 1.008 0.1816 83.4844 81.8779 -28.6834
507088 29256 4 16 -0.587509 83.2904 84.2862 -28.424
507093 29256 14 1.008 0.4315 84.8332 85.8972 -27.8179
507091 29256 1 12.01 0.6797 84.1758 84.1651 -27.625
507121 13 3 12.01 -0.1956 86.9237 82.3681 -29.2967
507125 13 5 1.008 0.1816 87.4052 84.4768 -28.743
507127 13 3 12.01 0.014 87.532 83.4246 -28.5059
506863 22238 1 12.01 0.743425 78.5739 79.8376 -26.9786
506847 22238 4 16 -0.587509 78.2272 79.6854 -25.7765
506872 22238 7 14.01 -0.398375 79.8661 80.2008 -27.2545
506853 22238 5 1.008 0.131 81.0293 78.4686 -25.3721
506878 22238 3 12.01 0.1716 80.7607 80.5272 -26.234
506864 22238 3 12.01 -0.23 81.3592 79.5009 -25.443
506910 29256 5 1.008 0.1816 85.4667 79.2602 -25.765
506911 29256 3 12.01 0.014 85.243 80.2454 -26.1635
506888 29256 3 12.01 -0.1956 84.439 80.3203 -27.3264
507749 22238 5 1.008 0.10745 77.8918 86.9074 -25.164
507080 22238 5 1.008 0.131 80.5553 82.6303 -26.5784
507081 22238 3 12.01 -0.1565 81.0307 81.8808 -25.9526
507114 29256 3 12.01 -0.1956 85.6748 81.3804 -25.4711
507109 29256 3 12.01 -0.1956 84.5309 82.8112 -27.0955
507116 29256 12 16 -0.5351 84.9518 85.151 -27.1293
507120 29256 3 12.01 0.014 85.3344 82.6753 -25.9483
507084 22238 3 12.01 -0.23 82.0248 82.2089 -25.0202
507133 29256 5 1.008 0.1816 85.746 83.5832 -25.5173
507124 13 8 1.008 0.23105 87.7729 85.5423 -27.382
533399 13 3 12.01 0.014 86.3699 87.7824 -23.1416
507803 13 5 1.008 0.1816 85.4408 87.2211 -23.1108
507762 22238 3 12.01 -0.23 78.0166 84.7146 -24.656
507759 22238 8 1.008 0.23105 77.9284 81.4732 -24.9059
507763 22238 7 14.01 -0.398375 77.9157 82.2445 -24.3581
507801 13 3 12.01 -0.1956 87.5609 87.0275 -23.0701
507800 13 1 12.01 0.6797 87.6228 85.6136 -23.2223
507089 22238 5 1.008 0.10745 82.3661 83.2284 -24.8668
507553 22238 3 12.01 0.014 79.1272 77.9113 -22.684
507558 22238 3 12.01 -0.1956 78.3637 80.5599 -22.6879
506876 22238 3 12.01 0.1716 82.1438 79.8716 -24.2908
507537 22238 8 1.008 0.23105 83.323 78.8839 -23.1039
507538 22238 7 14.01 -0.398375 82.3706 78.9443 -23.3238
507143 29256 12 16 -0.5351 86.8931 80.0094 -24.0073
507795 29256 14 1.008 0.4315 87.2281 79.9368 -23.0964
507764 22238 5 1.008 0.131 78.7329 84.7501 -23.8405
507757 22238 1 12.01 0.743425 78.0292 82.0076 -22.9833
507139 29256 1 12.01 0.6797 86.5099 81.2759 -24.2335
507095 22238 3 12.01 -0.1565 82.4834 81.2728 -24.0907
506917 29256 4 16 -0.587509 87.2122 82.2041 -23.8434
507798 13 4 16 -0.587509 86.6164 84.99 -23.577
507756 22238 5 1.008 0.131 83.1341 81.6476 -23.3062
507556 22238 3 12.01 0.014 79.6933 80.154 -22.426
507544 22238 3 12.01 -0.1956 80.0536 78.8407 -22.3689
507754 22238 5 1.008 0.1816 80.4599 80.8876 -22.1943
507543 22238 1 12.01 0.743425 81.4845 78.4728 -22.4363
507783 22238 4 16 -0.587509 77.9489 82.9063 -22.1326
507765 29224 3 12.01 0.014 77.972 85.9228 -20.5035
507768 29224 3 12.01 -0.1956 79.2596 85.731 -21.095
507771 29224 3 12.01 0.014 79.7428 86.5792 -22.0744
507767 29224 1 12.01 0.6797 80.1353 84.7103 -20.4781
533370 29224 3 12.01 -0.1956 79.0324 87.7242 -22.3974
507766 29224 4 16 -0.587509 80.9738 84.0887 -21.0557
507772 29224 5 1.008 0.1816 80.7292 86.4043 -22.4937
507534 29358 5 1.008 0.1816 77.9288 78.7108 -19.458
507555 29358 3 12.01 0.014 78.9051 78.3164 -19.192
507546 29358 3 12.01 -0.1956 79.9734 79.2346 -18.7485
507752 29358 1 12.01 0.6797 79.669 80.7579 -18.6551
507751 29358 12 16 -0.5351 78.4847 81.1302 -19.1732
507545 29358 3 12.01 0.014 81.2407 78.7159 -18.4816
507557 29358 5 1.008 0.1816 82.0815 79.3656 -18.2572
507777 29358 14 1.008 0.4315 78.5701 82.039 -19.5256
507769 29224 12 16 -0.5351 79.991 84.6026 -19.1715
507755 29358 4 16 -0.587509 80.5931 81.4519 -18.3842
507770 29224 14 1.008 0.4315 80.658 83.999 -18.8528
532017 29224 5 1.008 0.1816 78.6596 91.8737 -36.0238
532337 29224 3 12.01 0.014 78.7993 91.368 -35.0729
532336 23628 5 1.008 0.131 79.6125 94.024 -35.0093
532338 23628 3 12.01 -0.1565 80.5643 94.135 -35.5204
532010 13 5 1.008 0.131 79.7915 88.0233 -36.4504
532018 23628 3 12.01 -0.23 80.5888 94.0231 -36.894
532015 29224 1 12.01 0.743425 81.1266 90.7424 -35.8253
532014 29224 4 16 -0.587509 80.8484 90.8341 -36.9871
532031 13 4 16 -0.587509 87.5537 88.9609 -37.3819
532019 29224 7 14.01 -0.398375 82.4198 91.1445 -35.343
558708 11409 5 1.008 0.10745 86.489 94.4538 -35.6814
532026 29224 5 1.008 0.131 84.2558 89.2584 -35.1658
532345 23628 3 12.01 -0.23 82.9664 94.5497 -35.4706
532346 23628 3 12.01 0.1716 82.9909 94.368 -36.8731
532020 29224 8 1.008 0.23105 83.0682 91.5927 -35.9918
532033 23628 5 1.008 0.10745 83.9591 94.486 -37.3507
558713 11409 3 12.01 -0.23 87.129 93.5931 -35.5113
532025 13 5 1.008 0.1816 85.0699 88.2454 -37.0725
532132 23628 3 12.01 0.014 79.3602 96.7189 -37.1388
532125 23628 3 12.01 -0.1956 78.1918 95.8922 -37.0696
532334 29224 3 12.01 -0.1956 78.0278 91.61 -33.8631
532343 29224 3 12.01 0.014 78.4454 91.0445 -32.6661
532344 29224 3 12.01 -0.1956 79.5777 90.2578 -32.5253
532351 23628 4 16 -0.587509 79.7748 93.82 -32.5704
532335 29224 3 12.01 -0.1956 79.9718 90.5455 -34.8855
532333 29224 3 12.01 0.014 80.2256 89.8605 -33.6874
532332 29224 5 1.008 0.1816 81.0549 89.1594 -33.6762
532342 29224 5 1.008 0.131 81.8196 92.0233 -32.8521
532340 29224 3 12.01 -0.23 82.5303 91.204 -32.9078
532341 29224 3 12.01 0.1716 83.0163 90.7314 -34.1536
532339 23628 3 12.01 0.1716 81.7503 94.3959 -34.7324
532349 29224 3 12.01 -0.1565 83.8808 89.6115 -34.2097
532347 23628 7 14.01 -0.398375 81.8021 94.5315 -33.3665
532348 29224 3 12.01 -0.23 84.1953 88.9135 -33.0345
558703 11409 5 1.008 0.10745 85.6015 92.6057 -34.2457
532594 11409 8 1.008 0.23105 86.088 90.4346 -33.3603
558714 11409 3 12.01 -0.1565 86.6086 92.552 -34.6486
506534 29224 5 1.008 0.10745 84.7848 88.0016 -33.0167
558707 11409 3 12.01 0.1716 87.5018 91.5314 -34.317
558704 11409 7 14.01 -0.4621 87.1036 90.577 -33.4268
558699 11409 8 1.008 0.23105 87.738 89.7759 -33.1751
532442 23628 5 1.008 0.131 79.0119 96.3342 -33.9833
532453 23628 3 12.01 -0.23 79.145 97.1784 -33.3132
532356 23628 5 1.008 0.131 83.9104 94.664 -34.9459
532456 23628 8 1.008 0.23105 82.6859 94.8631 -33.0186
532441 23628 7 14.01 -0.398375 81.3509 97.7659 -34.4768
532664 29224 5 1.008 0.1816 77.8656 91.4014 -31.82
532677 29224 1 12.01 0.743425 80.2381 90.0288 -31.1396
532661 23628 1 12.01 0.743425 80.7714 94.5342 -32.3872
532350 29224 3 12.01 0.1716 82.6208 90.2496 -31.8159
532331 29224 3 12.01 -0.1565 83.4763 89.2004 -31.8664
506518 29224 5 1.008 0.131 83.5727 88.5624 -30.9929
679918 11220 5 1.008 0.1816 85.0434 91.7101 -31.3218
532674 23628 3 12.01 -0.1956 80.7674 95.2871 -31.085
532876 23628 5 1.008 0.1816 82.523 96.4186 -31.6321
532651 23628 5 1.008 0.1816 78.8608 94.6189 -30.5915
532652 29224 4 16 -0.587509 79.4717 89.865 -30.174
532662 29224 7 14.01 -0.398375 81.5883 90.267 -30.8767
532675 23628 3 12.01 0.014 79.6108 95.3482 -30.2997
532832 809 5 1.008 0.131 87.2431 94.6799 -30.0337
532877 23628 3 12.01 0.014 81.7203 96.2967 -30.9109
532660 29224 8 1.008 0.23105 81.8757 90.2015 -29.9479
532820 809 4 16 -0.587509 86.5243 90.1627 -29.3239
532819 809 7 14.01 -0.398375 87.433 92.129 -29.4842
532817 809 1 12.01 0.743425 87.5086 90.7895 -29.6376
532880 23628 1 12.01 0.743425 78.032 96.2192 -28.5229
532878 23628 3 12.01 -0.1956 79.402 96.2438 -29.2217
532882 23628 3 12.01 0.014 80.3816 97.2416 -29.0135
532881 23628 3 12.01 -0.1956 81.5534 97.1971 -29.8398
532933 1266 4 16 -0.587509 86.2592 96.6953 -28.1914
532931 1266 1 12.01 0.743425 87.191 97.2849 -27.7274
532659 29224 3 12.01 -0.23 77.85 92.5714 -25.6027
532653 29224 3 12.01 -0.1565 78.9811 93.1172 -26.2198
532650 29224 5 1.008 0.131 78.9613 94.0057 -26.8439
532656 29224 3 12.01 0.1716 80.2851 92.5908 -26.0253
533336 29224 3 12.01 -0.23 80.4358 91.448 -25.1344
532654 29224 5 1.008 0.10745 81.1393 92.9659 -26.5812
533340 29224 5 1.008 0.131 81.396 90.947 -25.0548
533380 1266 3 12.01 -0.23 86.961 92.9551 -25.0473
532908 1266 3 12.01 -0.1565 86.5256 95.3166 -25.3037
532879 23628 5 1.008 0.131 83.5832 97.5452 -27.0535
532909 1266 5 1.008 0.131 85.9733 96.2126 -25.0363
532919 1266 3 12.01 0.1716 87.6862 95.5097 -26.11
532710 13 5 1.008 0.131 87.2863 87.8061 -26.4535
533337 29224 3 12.01 -0.1565 78.0876 91.5214 -24.7153
533353 29224 3 12.01 0.1716 79.3262 91.0173 -24.346
533338 29224 4 16 -0.587509 79.9048 88.1676 -24.4652
533369 1266 3 12.01 -0.23 86.1841 94.1094 -24.668
533573 1266 5 1.008 0.1816 81.8495 96.4504 -23.3904
533382 1266 5 1.008 0.131 86.6962 91.9838 -24.6402
533361 1266 4 16 -0.587509 83.5661 95.4252 -24.6624
533356 1266 1 12.01 0.743425 83.9448 94.7754 -23.7356
533350 29224 7 14.01 -0.398375 79.3668 90.0701 -23.3093
533346 29224 1 12.01 0.743425 79.4932 88.677 -23.4732
533561 1266 7 14.01 -0.398375 85.2154 94.0828 -23.6702
533392 13 4 16 -0.587509 85.445 91.27 -22.5966
533363 13 7 14.01 -0.398375 83.9853 89.578 -22.9459
533384 13 3 12.01 -0.1956 86.4269 89.1981 -23.154
533391 13 1 12.01 0.743425 85.2522 90.1167 -22.9297
533359 13 5 1.008 0.131 82.7153 92.0498 -22.9851
533362 13 8 1.008 0.23105 83.9726 88.5886 -23.2581
533564 1266 8 1.008 0.23105 85.5083 93.5666 -22.8009
533390 13 3 12.01 0.014 87.6839 89.8692 -23.0368
533388 13 5 1.008 0.1816 87.7742 90.95 -22.9795
533403 1266 5 1.008 0.131 86.4949 96.3748 -20.3986
533607 1266 3 12.01 -0.23 85.6505 97.0575 -20.3819
533574 1266 3 12.01 -0.1956 81.5201 96.2954 -21.1935
533572 1266 3 12.01 0.014 82.0753 95.9649 -22.4456
533568 1266 3 12.01 0.014 81.9628 95.6827 -20.0494
533560 1266 3 12.01 -0.1956 83.1686 95.0623 -22.4814
533367 1266 3 12.01 -0.1956 83.0085 94.7947 -20.0188
533578 1266 1 12.01 0.743425 80.9447 97.7349 -21.0271
533354 29224 8 1.008 0.23105 79.2498 90.4331 -22.3443
533351 13 5 1.008 0.10745 81.0995 92.7839 -21.3945
533372 13 5 1.008 0.131 83.0172 88.2307 -20.9723
533349 13 3 12.01 -0.23 81.2806 91.0339 -20.1225
533347 13 3 12.01 -0.23 82.4756 91.3341 -22.2044
533358 13 3 12.01 0.1716 82.9939 90.0226 -22.1242
533348 13 3 12.01 0.1716 81.5171 91.7854 -21.305
533339 13 3 12.01 -0.1565 82.5914 89.2267 -21.0514
533357 13 3 12.01 -0.23 81.6909 89.673 -20.0949
533360 1266 5 1.008 0.1816 84.4638 93.7765 -21.3246
533355 1266 3 12.01 0.014 83.5845 94.4132 -21.2951
534238 13 3 12.01 0.014 78.3316 96.3461 -17.6782
533405 22505 5 1.008 0.10745 86.1775 92.4596 -17.7581
534013 13 1 12.01 0.743425 78.9881 93.8711 -17.5897
534008 13 4 16 -0.587509 78.4981 92.7692 -17.5943
534038 1266 8 1.008 0.23105 85.3769 95.6021 -17.8017
534241 1266 7 14.01 -0.398375 84.7414 95.6897 -18.5503
534240 1266 5 1.008 0.131 82.867 97.5255 -18.5847
533596 1266 3 12.01 0.1716 84.7132 96.845 -19.3689
533594 1266 3 12.01 -0.1565 83.6021 97.6993 -19.3651
533587 1266 5 1.008 0.1816 81.5522 95.9865 -19.091
533371 1266 1 12.01 0.743425 83.8297 94.6637 -18.8029
533368 13 3 12.01 -0.1956 78.2984 95.0401 -18.1404
533345 13 4 16 -0.587509 79.1245 88.8533 -19.1353
533332 13 1 12.01 0.743425 80.1326 88.4319 -18.5285
533352 13 5 1.008 0.131 80.6621 91.3925 -19.305
533334 13 7 14.01 -0.398375 81.4124 88.8376 -18.9964
534014 1266 4 16 -0.587509 83.6695 93.6677 -18.0321
533330 13 8 1.008 0.23105 82.0738 88.3287 -18.5685
506546 13 14 1.008 0.4315 93.0006 84.9543 -33.731
507179 13 12 16 -0.5351 93.4694 85.0786 -32.8953
507177 13 1 12.01 0.6797 94.1836 86.2602 -32.9997
506560 13 4 16 -0.587509 94.4991 86.6652 -34.1095
532354 13 4 16 -0.587509 91.2529 87.4727 -32.8593
505043 23166 4 16 -0.587509 88.3295 79.241 -31.5421
505048 23166 1 12.01 0.743425 89.2804 78.6597 -31.0733
506529 13 3 12.01 0.1716 87.8935 84.1604 -31.4049
506542 13 5 1.008 0.131 88.6577 82.1709 -31.5792
506540 13 3 12.01 -0.23 88.9117 83.2185 -31.4475
506541 13 3 12.01 0.1716 90.234 83.6132 -31.3354
506543 13 5 1.008 0.10745 91.008 82.8709 -31.1639
507108 13 3 12.01 -0.23 89.5274 85.9596 -31.2254
506538 13 3 12.01 -0.1565 90.5546 84.942 -31.1304
506539 13 5 1.008 0.131 91.6264 85.0838 -31.028
507142 13 7 14.01 -0.398375 89.8585 87.3003 -31.0983
507138 13 3 12.01 -0.1565 88.1936 85.5401 -31.397
507159 13 3 12.01 -0.1956 94.7439 86.7896 -31.6749
507156 13 5 1.008 0.1816 93.699 85.3863 -30.4217
507158 13 3 12.01 0.014 94.4284 86.1908 -30.4299
507145 13 8 1.008 0.23105 89.5046 87.7361 -30.2594
506902 13 4 16 -0.587509 87.8567 78.4736 -28.1661
506903 13 1 12.01 0.743425 88.3508 79.3297 -27.5093
507113 13 3 12.01 -0.1956 88.0926 80.7587 -27.9051
507155 13 4 16 -0.587509 93.6287 85.4963 -27.8858
532711 13 5 1.008 0.1816 91.7116 87.5353 -29.0634
507157 13 1 12.01 0.743425 94.7108 86.0367 -27.942
507153 13 3 12.01 -0.1956 95.0757 86.585 -29.2796
507162 13 3 12.01 0.014 96.0066 87.6575 -29.3381
506906 13 7 14.01 -0.398375 89.1942 79.0134 -26.3979
506904 13 8 1.008 0.23105 89.4921 79.8148 -25.8074
506912 13 5 1.008 0.131 91.5069 77.9496 -25.8576
506949 13 14 1.008 0.4315 97.7411 77.9678 -25.9067
507128 13 3 12.01 -0.1956 88.3675 83.0996 -27.422
507119 13 3 12.01 0.014 88.6659 81.7958 -27.0894
507126 13 1 12.01 0.743425 89.0048 84.1674 -26.7273
507134 13 5 1.008 0.131 91.2719 86.0889 -26.6472
507129 13 3 12.01 0.1716 89.2144 86.7694 -26.7281
507115 13 5 1.008 0.1816 89.3615 81.4867 -26.3148
507122 13 4 16 -0.587509 89.8491 83.8966 -25.8826
507171 13 5 1.008 0.131 94.0569 83.8706 -25.9427
507123 13 7 14.01 -0.398375 88.6013 85.4819 -26.8722
507130 13 3 12.01 -0.23 90.605 86.9455 -26.6769
507823 13 3 12.01 -0.1565 94.6282 84.4236 -25.203
507165 13 3 12.01 0.1716 95.277 85.6066 -25.5458
507154 13 7 14.01 -0.398375 95.5232 86.0123 -26.8087
507160 13 4 16 -0.587509 97.64 82.8177 -27.284
507161 13 8 1.008 0.23105 96.4765 86.4017 -26.9356
507831 13 8 1.008 0.23105 96.5815 81.8223 -22.9942
507841 13 3 12.01 0.1716 95.8404 85.8588 -23.0739
507839 13 3 12.01 -0.1565 95.0182 84.7431 -22.8026
533379 13 3 12.01 0.014 88.7896 87.7763 -23.0044
507842 13 3 12.01 -0.23 95.9367 86.3094 -24.4723
507824 13 5 1.008 0.131 96.4507 87.2303 -24.7314
507163 13 5 1.008 0.1816 97.6058 82.4789 -24.7631
506918 13 5 1.008 0.131 91.6345 78.2894 -23.0318
506955 13 5 1.008 0.10745 93.8098 79.5186 -22.8448
507799 13 12 16 -0.5351 88.8043 85.0174 -22.9411
507790 13 14 1.008 0.4315 88.5987 84.0818 -22.98
507830 13 5 1.008 0.10745 93.8159 83.1549 -23.6722
507838 13 3 12.01 -0.23 94.4981 83.9791 -23.8588
507802 13 5 1.008 0.1816 89.7102 87.2024 -23.0541
507853 13 1 12.01 0.743425 97.7066 86.9758 -21.8085
507836 13 8 1.008 0.23105 95.9707 86.278 -21.0742
507837 13 7 14.01 -0.398375 96.4749 86.4678 -21.9762
507835 13 7 14.01 -0.398375 96.8521 82.0257 -22.0659
507833 13 3 12.01 0.1716 96.1544 81.4686 -21.0332
507832 13 3 12.01 -0.1565 94.7506 81.564 -21.0958
507840 13 5 1.008 0.131 94.8642 84.3173 -21.8155
507601 13 3 12.01 0.1716 93.6432 78.5945 -22.2992
507581 13 3 12.01 -0.23 92.432 77.914 -22.3974
507829 13 3 12.01 -0.23 93.9711 80.9769 -20.0702
507608 13 3 12.01 -0.1565 94.7112 78.0463 -21.6148
507607 13 5 1.008 0.131 95.6263 78.6304 -21.6451
507822 13 3 12.01 -0.23 96.786 80.6765 -20.062
507834 13 5 1.008 0.131 94.2019 82.1549 -21.8232
508450 5922 3 12.01 0.1716 92.9868 84.7682 -17.6295
534045 5922 5 1.008 0.10745 92.9292 86.9322 -17.6511
507843 7460 7 14.01 -0.4621 97.5394 82.8223 -17.8594
507848 7460 8 1.008 0.23105 96.5651 83.0759 -18.0317
507845 13 5 1.008 0.1816 96.9822 85.8647 -19.3745
508436 13 5 1.008 0.10745 89.693 81.6353 -17.8995
507628 13 5 1.008 0.131 93.911 79.6313 -18.4959
507825 13 3 12.01 -0.1565 94.6159 80.0654 -19.1988
507818 13 5 1.008 0.131 91.5734 79.8274 -18.0593
507820 13 3 12.01 0.1716 96.0317 79.8786 -19.1626
507617 13 8 1.008 0.23105 97.6167 78.761 -18.7008
507618 13 7 14.01 -0.398375 96.6917 78.9989 -18.3279
507828 13 5 1.008 0.10745 92.9129 81.2063 -19.9875
508451 5922 7 14.01 -0.4621 93.3999 84.6402 -18.9487
508455 5922 8 1.008 0.23105 93.7383 85.4587 -19.3886
508429 5922 8 1.008 0.23105 93.2996 83.7879 -19.5013
532378 13 5 1.008 0.1816 93.6783 92.1936 -35.0838
532479 13 1 12.01 0.743425 93.6385 94.9482 -35.8371
532484 13 4 16 -0.587509 93.7449 95.9915 -36.4157
532483 13 5 1.008 0.131 92.2865 97.4848 -35.1601
532157 13 5 1.008 0.1816 96.1744 95.283 -36.7869
532371 13 3 12.01 0.1716 93.4314 89.7051 -36.8674
532376 13 3 12.01 0.014 94.5789 92.5692 -35.5605
532368 13 3 12.01 -0.1565 92.1581 89.1241 -36.7097
558376 11409 3 12.01 0.1716 89.2687 92.4118 -35.6577
532370 13 7 14.01 -0.398375 94.2976 89.4598 -35.7773
532383 13 8 1.008 0.23105 94.2474 88.4382 -35.4266
532367 13 5 1.008 0.131 91.9003 88.4026 -35.94
558377 11409 7 14.01 -0.4621 90.5912 92.4077 -36.1673
558375 11409 8 1.008 0.23105 90.8751 91.5496 -36.6529
558370 11409 5 1.008 0.10745 88.7563 94.2775 -36.6987
558712 11409 3 12.01 -0.1565 88.4041 93.5022 -36.0247
558372 11409 8 1.008 0.23105 90.8676 93.2804 -36.591
532375 13 3 12.01 -0.1956 94.6847 93.8861 -36.022
532380 13 3 12.01 -0.1956 95.5609 91.6189 -35.7088
532374 13 3 12.01 0.014 95.9761 94.2495 -36.5189
532377 13 3 12.01 -0.1956 97.0885 93.3252 -36.5331
532373 13 5 1.008 0.1816 97.6915 91.3096 -36.1987
532379 13 3 12.01 0.014 96.8475 91.9878 -36.1145
532372 13 1 12.01 0.743425 95.3522 90.2097 -35.2717
532478 13 7 14.01 -0.398375 92.5624 94.6913 -34.8902
532460 13 3 12.01 -0.1565 90.4742 95.0279 -33.6311
532949 13 5 1.008 0.131 88.6572 97.783 -32.8564
532475 13 3 12.01 -0.23 91.504 95.5782 -34.4188
532946 13 3 12.01 -0.23 89.4202 97.1631 -33.3179
532955 13 3 12.01 0.1716 89.4447 95.7579 -33.1083
532472 13 3 12.01 0.1716 90.5319 97.7246 -33.9539
532476 13 3 12.01 -0.1565 91.4939 96.9677 -34.6274
532492 13 5 1.008 0.10745 94.0623 96.8203 -33.2321
532987 13 3 12.01 0.1716 94.7875 96.0755 -32.9179
532759 13 3 12.01 -0.23 97.1167 95.2466 -32.6697
532490 13 3 12.01 -0.23 96.2097 96.1806 -33.2112
532482 13 5 1.008 0.131 96.5918 97.0655 -33.7117
532717 13 5 1.008 0.1816 92.3784 89.8278 -32.632
532747 13 4 16 -0.587509 93.8016 91.6317 -32.7278
532369 13 8 1.008 0.23105 92.656 93.8762 -34.3735
532352 13 5 1.008 0.131 90.3576 93.9651 -33.4408
558709 11409 3 12.01 -0.23 88.7917 91.4513 -34.8291
558368 11409 5 1.008 0.10745 89.4837 90.6666 -34.5377
532758 13 5 1.008 0.1816 95.7171 88.2379 -32.6946
532756 13 8 1.008 0.23105 97.3694 89.3295 -32.6389
532381 13 4 16 -0.587509 96.2778 89.6616 -34.6127
532708 13 1 12.01 0.743425 91.0213 87.839 -31.702
507176 13 3 12.01 0.014 95.6361 87.7999 -31.7042
532744 13 5 1.008 0.131 93.3224 94.9455 -31.851
532754 13 3 12.01 -0.23 94.3784 94.9875 -32.1009
532947 13 5 1.008 0.10745 88.6829 95.2972 -32.4863
532720 13 3 12.01 -0.1956 93.4959 90.5334 -30.8655
532718 13 3 12.01 0.014 92.6037 89.6652 -31.5821
532733 13 1 12.01 0.743425 94.0273 91.6986 -31.5668
532831 809 3 12.01 -0.1956 88.6469 90.0831 -30.2861
532729 13 1 12.01 0.743425 97.4932 89.1833 -30.6238
532755 13 3 12.01 -0.1956 96.3102 88.3255 -30.5542
532704 13 3 12.01 -0.1956 91.9364 88.6728 -30.9405
532721 13 7 14.01 -0.398375 94.6555 92.8648 -31.0084
532739 13 3 12.01 0.1716 95.2014 93.9099 -31.7401
532411 809 5 1.008 0.10745 89.1752 96.2422 -30.0475
533004 7428 3 12.01 0.014 96.9482 97.638 -30.0064
532746 13 5 1.008 0.131 97.3305 93.3497 -31.7253
532748 13 3 12.01 -0.1565 96.5787 94.0648 -32.0458
532706 13 3 12.01 0.014 92.1736 88.3999 -29.5309
532724 13 3 12.01 0.014 93.7066 90.3387 -29.488
532514 809 3 12.01 -0.23 89.8008 92.5412 -29.1285
532517 809 3 12.01 0.1716 90.8375 93.4445 -29.2483
532518 809 7 14.01 -0.398375 92.0963 92.9433 -28.7883
532728 13 3 12.01 -0.1956 93.049 89.2594 -28.8658
532722 13 5 1.008 0.1816 94.4102 90.9971 -28.9872
532515 809 1 12.01 0.743425 92.6511 93.2966 -27.5891
532723 13 8 1.008 0.23105 94.5166 93.0156 -29.9725
532835 809 3 12.01 0.1716 88.5004 92.9327 -29.5684
532405 809 3 12.01 -0.1565 88.2431 94.2994 -29.8477
507168 13 5 1.008 0.1816 96.5985 87.9591 -28.479
532412 809 3 12.01 -0.1565 90.6358 94.7188 -29.799
532408 809 3 12.01 -0.23 89.3337 95.1816 -29.8761
532409 809 5 1.008 0.131 91.4874 95.3744 -29.9552
532998 7428 4 16 -0.587509 93.7348 96.4314 -28.7505
533002 7428 1 12.01 0.6797 94.9285 96.7229 -28.7167
533003 7428 3 12.01 -0.1956 95.5372 97.6154 -29.7411
533006 7428 5 1.008 0.1816 97.6743 97.026 -29.4795
533001 7428 12 16 -0.5351 95.7316 96.4336 -27.6611
532687 1266 3 12.01 0.1716 88.105 93.1382 -25.832
507175 13 8 1.008 0.23105 92.9989 88.1706 -25.6971
532703 13 5 1.008 0.10745 88.2571 89.9985 -26.1748
532741 13 7 14.01 -0.398375 92.4994 88.4011 -26.4741
532702 13 3 12.01 -0.23 88.8772 89.1176 -26.312
532690 13 5 1.008 0.131 90.7382 90.3669 -26.1922
532701 13 3 12.01 -0.23 90.2988 89.3823 -26.3222
532719 13 4 16 -0.587509 94.5181 89.1855 -27.1436
532730 13 1 12.01 0.743425 93.3693 88.9541 -27.4069
532192 809 4 16 -0.587509 93.797 93.08 -27.3709
532685 1266 5 1.008 0.10745 88.7513 92.2777 -25.9773
532688 1266 5 1.008 0.131 89.3342 94.4123 -27.0306
532709 13 3 12.01 0.1716 91.1449 88.2529 -26.4702
532689 1266 3 12.01 -0.23 88.4934 94.4124 -26.3433
532922 1266 7 14.01 -0.398375 87.9992 96.6632 -26.7589
532921 1266 8 1.008 0.23105 88.6958 97.2598 -26.3291
532791 7428 14 1.008 0.4315 95.2666 95.9285 -26.9521
532712 13 3 12.01 -0.1565 88.366 87.8668 -26.5535
533409 13 5 1.008 0.131 92.6305 90.5848 -24.9323
533410 13 5 1.008 0.10745 94.7836 91.6529 -24.7313
533375 13 8 1.008 0.23105 91.1904 88.3373 -23.3711
533423 13 3 12.01 -0.1565 93.212 90.4807 -24.0211
533417 13 3 12.01 -0.23 94.4914 91.0049 -23.9102
533389 13 4 16 -0.587509 90.193 91.1445 -22.7736
533387 13 1 12.01 0.743425 90.2052 89.9225 -22.8601
533428 13 3 12.01 0.1716 92.6293 89.6848 -22.9995
533383 13 3 12.01 -0.1956 88.9165 89.172 -22.9776
533398 13 7 14.01 -0.398375 91.3561 89.2013 -23.0571
533419 13 3 12.01 -0.1565 95.2618 90.662 -22.7622
533422 13 5 1.008 0.131 96.2456 91.1192 -22.7111
533416 13 3 12.01 -0.23 93.3188 89.4589 -21.8005
534102 7679 5 1.008 0.10745 90.5178 90.8679 -20.0962
533414 13 5 1.008 0.131 92.9838 88.8888 -20.939
534049 7679 7 14.01 -0.4621 92.8519 92.3439 -20.4867
534041 7679 8 1.008 0.23105 93.7632 92.7872 -20.5036
534046 7679 8 1.008 0.23105 92.5404 91.9373 -21.3787
533418 13 3 12.01 0.1716 94.6559 89.922 -21.7087
533420 13 7 14.01 -0.398375 95.468 89.9359 -20.5563
533421 13 8 1.008 0.23105 95.9134 90.8397 -20.3226
533406 13 4 16 -0.587509 95.0893 87.8376 -19.7951
534106 7679 3 12.01 -0.23 91.3026 90.7237 -19.3595
534051 22505 5 1.008 0.131 88.6494 92.6102 -18.1515
534104 7679 3 12.01 0.1716 92.5456 91.4799 -19.4439
534091 7679 3 12.01 -0.1565 93.5738 91.1617 -18.5399
534047 7679 5 1.008 0.10745 94.5197 91.6816 -18.6598
534103 7679 3 12.01 0.1716 91.038 89.8379 -18.2585
534098 7679 7 14.01 -0.4621 89.888 89.0941 -18.1343
534097 7679 8 1.008 0.23105 89.3731 88.92 -18.9227
533415 13 1 12.01 0.743425 95.6689 88.9167 -19.6158
533427 13 5 1.008 0.1816 97.5998 90.7125 -19.5638
533425 13 3 12.01 0.014 97.5062 90.229 -18.5959
533424 13 3 12.01 -0.1956 96.5181 89.2538 -18.4594
534117 1847 14 1.008 0.4315 96.4094 94.3991 -17.5608
